+ 0.00017 0 2 rtProtoDV 5 ------- 0 0.1 2.1 -1 0
- 0.00017 0 2 rtProtoDV 5 ------- 0 0.1 2.1 -1 0
+ 0.007102 2 0 rtProtoDV 5 ------- 0 2.1 0.1 -1 1
- 0.007102 2 0 rtProtoDV 5 ------- 0 2.1 0.1 -1 1
+ 0.007102 2 1 rtProtoDV 5 ------- 0 2.1 1.2 -1 2
- 0.007102 2 1 rtProtoDV 5 ------- 0 2.1 1.2 -1 2
+ 0.007102 2 3 rtProtoDV 5 ------- 0 2.1 3.2 -1 3
- 0.007102 2 3 rtProtoDV 5 ------- 0 2.1 3.2 -1 3
+ 0.007102 2 4 rtProtoDV 5 ------- 0 2.1 4.1 -1 4
- 0.007102 2 4 rtProtoDV 5 ------- 0 2.1 4.1 -1 4
r 0.01021 0 2 rtProtoDV 5 ------- 0 0.1 2.1 -1 0
r 0.017142 2 0 rtProtoDV 5 ------- 0 2.1 0.1 -1 1
+ 0.017142 0 2 rtProtoDV 5 ------- 0 0.1 2.1 -1 5
- 0.017142 0 2 rtProtoDV 5 ------- 0 0.1 2.1 -1 5
r 0.017142 2 1 rtProtoDV 5 ------- 0 2.1 1.2 -1 2
+ 0.017142 1 2 rtProtoDV 5 ------- 0 1.2 2.1 -1 6
- 0.017142 1 2 rtProtoDV 5 ------- 0 1.2 2.1 -1 6
r 0.017142 2 3 rtProtoDV 5 ------- 0 2.1 3.2 -1 3
+ 0.017142 3 2 rtProtoDV 5 ------- 0 3.2 2.1 -1 7
- 0.017142 3 2 rtProtoDV 5 ------- 0 3.2 2.1 -1 7
r 0.017142 2 4 rtProtoDV 5 ------- 0 2.1 4.1 -1 4
+ 0.017142 4 2 rtProtoDV 5 ------- 0 4.1 2.1 -1 8
- 0.017142 4 2 rtProtoDV 5 ------- 0 4.1 2.1 -1 8
r 0.027182 0 2 rtProtoDV 5 ------- 0 0.1 2.1 -1 5
r 0.027182 1 2 rtProtoDV 5 ------- 0 1.2 2.1 -1 6
r 0.027182 3 2 rtProtoDV 5 ------- 0 3.2 2.1 -1 7
r 0.027182 4 2 rtProtoDV 5 ------- 0 4.1 2.1 -1 8
+ 0.044061 3 2 rtProtoDV 5 ------- 0 3.2 2.1 -1 9
- 0.044061 3 2 rtProtoDV 5 ------- 0 3.2 2.1 -1 9
r 0.054101 3 2 rtProtoDV 5 ------- 0 3.2 2.1 -1 9
+ 0.220587 4 2 rtProtoDV 5 ------- 0 4.1 2.1 -1 10
- 0.220587 4 2 rtProtoDV 5 ------- 0 4.1 2.1 -1 10
r 0.230627 4 2 rtProtoDV 5 ------- 0 4.1 2.1 -1 10
+ 0.27794 1 2 rtProtoDV 5 ------- 0 1.2 2.1 -1 11
- 0.27794 1 2 rtProtoDV 5 ------- 0 1.2 2.1 -1 11
r 0.28798 1 2 rtProtoDV 5 ------- 0 1.2 2.1 -1 11
+ 0.5 1 2 cbr 500 ------- 0 1.0 3.0 0 12
- 0.5 1 2 cbr 500 ------- 0 1.0 3.0 0 12
+ 0.505 1 2 cbr 500 ------- 0 1.0 3.0 1 13
- 0.505 1 2 cbr 500 ------- 0 1.0 3.0 1 13
+ 0.51 1 2 cbr 500 ------- 0 1.0 3.0 2 14
- 0.51 1 2 cbr 500 ------- 0 1.0 3.0 2 14
r 0.514 1 2 cbr 500 ------- 0 1.0 3.0 0 12
+ 0.514 2 3 cbr 500 ------- 0 1.0 3.0 0 12
- 0.514 2 3 cbr 500 ------- 0 1.0 3.0 0 12
+ 0.515 1 2 cbr 500 ------- 0 1.0 3.0 3 15
- 0.515 1 2 cbr 500 ------- 0 1.0 3.0 3 15
r 0.519 1 2 cbr 500 ------- 0 1.0 3.0 1 13
+ 0.519 2 3 cbr 500 ------- 0 1.0 3.0 1 13
- 0.519 2 3 cbr 500 ------- 0 1.0 3.0 1 13
+ 0.52 1 2 cbr 500 ------- 0 1.0 3.0 4 16
- 0.52 1 2 cbr 500 ------- 0 1.0 3.0 4 16
r 0.524 1 2 cbr 500 ------- 0 1.0 3.0 2 14
+ 0.524 2 3 cbr 500 ------- 0 1.0 3.0 2 14
- 0.524 2 3 cbr 500 ------- 0 1.0 3.0 2 14
+ 0.525 1 2 cbr 500 ------- 0 1.0 3.0 5 17
- 0.525 1 2 cbr 500 ------- 0 1.0 3.0 5 17
r 0.528 2 3 cbr 500 ------- 0 1.0 3.0 0 12
r 0.529 1 2 cbr 500 ------- 0 1.0 3.0 3 15
+ 0.529 2 3 cbr 500 ------- 0 1.0 3.0 3 15
- 0.529 2 3 cbr 500 ------- 0 1.0 3.0 3 15
+ 0.53 1 2 cbr 500 ------- 0 1.0 3.0 6 18
- 0.53 1 2 cbr 500 ------- 0 1.0 3.0 6 18
r 0.533 2 3 cbr 500 ------- 0 1.0 3.0 1 13
r 0.534 1 2 cbr 500 ------- 0 1.0 3.0 4 16
+ 0.534 2 3 cbr 500 ------- 0 1.0 3.0 4 16
- 0.534 2 3 cbr 500 ------- 0 1.0 3.0 4 16
+ 0.535 1 2 cbr 500 ------- 0 1.0 3.0 7 19
- 0.535 1 2 cbr 500 ------- 0 1.0 3.0 7 19
r 0.538 2 3 cbr 500 ------- 0 1.0 3.0 2 14
r 0.539 1 2 cbr 500 ------- 0 1.0 3.0 5 17
+ 0.539 2 3 cbr 500 ------- 0 1.0 3.0 5 17
- 0.539 2 3 cbr 500 ------- 0 1.0 3.0 5 17
+ 0.54 1 2 cbr 500 ------- 0 1.0 3.0 8 20
- 0.54 1 2 cbr 500 ------- 0 1.0 3.0 8 20
r 0.543 2 3 cbr 500 ------- 0 1.0 3.0 3 15
r 0.544 1 2 cbr 500 ------- 0 1.0 3.0 6 18
+ 0.544 2 3 cbr 500 ------- 0 1.0 3.0 6 18
- 0.544 2 3 cbr 500 ------- 0 1.0 3.0 6 18
+ 0.545 1 2 cbr 500 ------- 0 1.0 3.0 9 21
- 0.545 1 2 cbr 500 ------- 0 1.0 3.0 9 21
r 0.548 2 3 cbr 500 ------- 0 1.0 3.0 4 16
r 0.549 1 2 cbr 500 ------- 0 1.0 3.0 7 19
+ 0.549 2 3 cbr 500 ------- 0 1.0 3.0 7 19
- 0.549 2 3 cbr 500 ------- 0 1.0 3.0 7 19
+ 0.55 1 2 cbr 500 ------- 0 1.0 3.0 10 22
- 0.55 1 2 cbr 500 ------- 0 1.0 3.0 10 22
r 0.553 2 3 cbr 500 ------- 0 1.0 3.0 5 17
r 0.554 1 2 cbr 500 ------- 0 1.0 3.0 8 20
+ 0.554 2 3 cbr 500 ------- 0 1.0 3.0 8 20
- 0.554 2 3 cbr 500 ------- 0 1.0 3.0 8 20
+ 0.555 1 2 cbr 500 ------- 0 1.0 3.0 11 23
- 0.555 1 2 cbr 500 ------- 0 1.0 3.0 11 23
r 0.558 2 3 cbr 500 ------- 0 1.0 3.0 6 18
r 0.559 1 2 cbr 500 ------- 0 1.0 3.0 9 21
+ 0.559 2 3 cbr 500 ------- 0 1.0 3.0 9 21
- 0.559 2 3 cbr 500 ------- 0 1.0 3.0 9 21
+ 0.56 1 2 cbr 500 ------- 0 1.0 3.0 12 24
- 0.56 1 2 cbr 500 ------- 0 1.0 3.0 12 24
r 0.563 2 3 cbr 500 ------- 0 1.0 3.0 7 19
r 0.564 1 2 cbr 500 ------- 0 1.0 3.0 10 22
+ 0.564 2 3 cbr 500 ------- 0 1.0 3.0 10 22
- 0.564 2 3 cbr 500 ------- 0 1.0 3.0 10 22
+ 0.565 1 2 cbr 500 ------- 0 1.0 3.0 13 25
- 0.565 1 2 cbr 500 ------- 0 1.0 3.0 13 25
r 0.568 2 3 cbr 500 ------- 0 1.0 3.0 8 20
r 0.569 1 2 cbr 500 ------- 0 1.0 3.0 11 23
+ 0.569 2 3 cbr 500 ------- 0 1.0 3.0 11 23
- 0.569 2 3 cbr 500 ------- 0 1.0 3.0 11 23
+ 0.57 1 2 cbr 500 ------- 0 1.0 3.0 14 26
- 0.57 1 2 cbr 500 ------- 0 1.0 3.0 14 26
r 0.573 2 3 cbr 500 ------- 0 1.0 3.0 9 21
r 0.574 1 2 cbr 500 ------- 0 1.0 3.0 12 24
+ 0.574 2 3 cbr 500 ------- 0 1.0 3.0 12 24
- 0.574 2 3 cbr 500 ------- 0 1.0 3.0 12 24
+ 0.575 1 2 cbr 500 ------- 0 1.0 3.0 15 27
- 0.575 1 2 cbr 500 ------- 0 1.0 3.0 15 27
r 0.578 2 3 cbr 500 ------- 0 1.0 3.0 10 22
r 0.579 1 2 cbr 500 ------- 0 1.0 3.0 13 25
+ 0.579 2 3 cbr 500 ------- 0 1.0 3.0 13 25
- 0.579 2 3 cbr 500 ------- 0 1.0 3.0 13 25
+ 0.58 1 2 cbr 500 ------- 0 1.0 3.0 16 28
- 0.58 1 2 cbr 500 ------- 0 1.0 3.0 16 28
r 0.583 2 3 cbr 500 ------- 0 1.0 3.0 11 23
r 0.584 1 2 cbr 500 ------- 0 1.0 3.0 14 26
+ 0.584 2 3 cbr 500 ------- 0 1.0 3.0 14 26
- 0.584 2 3 cbr 500 ------- 0 1.0 3.0 14 26
+ 0.585 1 2 cbr 500 ------- 0 1.0 3.0 17 29
- 0.585 1 2 cbr 500 ------- 0 1.0 3.0 17 29
r 0.588 2 3 cbr 500 ------- 0 1.0 3.0 12 24
r 0.589 1 2 cbr 500 ------- 0 1.0 3.0 15 27
+ 0.589 2 3 cbr 500 ------- 0 1.0 3.0 15 27
- 0.589 2 3 cbr 500 ------- 0 1.0 3.0 15 27
+ 0.59 1 2 cbr 500 ------- 0 1.0 3.0 18 30
- 0.59 1 2 cbr 500 ------- 0 1.0 3.0 18 30
r 0.593 2 3 cbr 500 ------- 0 1.0 3.0 13 25
r 0.594 1 2 cbr 500 ------- 0 1.0 3.0 16 28
+ 0.594 2 3 cbr 500 ------- 0 1.0 3.0 16 28
- 0.594 2 3 cbr 500 ------- 0 1.0 3.0 16 28
+ 0.595 1 2 cbr 500 ------- 0 1.0 3.0 19 31
- 0.595 1 2 cbr 500 ------- 0 1.0 3.0 19 31
r 0.598 2 3 cbr 500 ------- 0 1.0 3.0 14 26
r 0.599 1 2 cbr 500 ------- 0 1.0 3.0 17 29
+ 0.599 2 3 cbr 500 ------- 0 1.0 3.0 17 29
- 0.599 2 3 cbr 500 ------- 0 1.0 3.0 17 29
+ 0.6 1 2 cbr 500 ------- 0 1.0 3.0 20 32
- 0.6 1 2 cbr 500 ------- 0 1.0 3.0 20 32
r 0.603 2 3 cbr 500 ------- 0 1.0 3.0 15 27
r 0.604 1 2 cbr 500 ------- 0 1.0 3.0 18 30
+ 0.604 2 3 cbr 500 ------- 0 1.0 3.0 18 30
- 0.604 2 3 cbr 500 ------- 0 1.0 3.0 18 30
+ 0.605 1 2 cbr 500 ------- 0 1.0 3.0 21 33
- 0.605 1 2 cbr 500 ------- 0 1.0 3.0 21 33
r 0.608 2 3 cbr 500 ------- 0 1.0 3.0 16 28
r 0.609 1 2 cbr 500 ------- 0 1.0 3.0 19 31
+ 0.609 2 3 cbr 500 ------- 0 1.0 3.0 19 31
- 0.609 2 3 cbr 500 ------- 0 1.0 3.0 19 31
+ 0.61 1 2 cbr 500 ------- 0 1.0 3.0 22 34
- 0.61 1 2 cbr 500 ------- 0 1.0 3.0 22 34
r 0.613 2 3 cbr 500 ------- 0 1.0 3.0 17 29
r 0.614 1 2 cbr 500 ------- 0 1.0 3.0 20 32
+ 0.614 2 3 cbr 500 ------- 0 1.0 3.0 20 32
- 0.614 2 3 cbr 500 ------- 0 1.0 3.0 20 32
+ 0.615 1 2 cbr 500 ------- 0 1.0 3.0 23 35
- 0.615 1 2 cbr 500 ------- 0 1.0 3.0 23 35
r 0.618 2 3 cbr 500 ------- 0 1.0 3.0 18 30
r 0.619 1 2 cbr 500 ------- 0 1.0 3.0 21 33
+ 0.619 2 3 cbr 500 ------- 0 1.0 3.0 21 33
- 0.619 2 3 cbr 500 ------- 0 1.0 3.0 21 33
+ 0.62 1 2 cbr 500 ------- 0 1.0 3.0 24 36
- 0.62 1 2 cbr 500 ------- 0 1.0 3.0 24 36
r 0.623 2 3 cbr 500 ------- 0 1.0 3.0 19 31
r 0.624 1 2 cbr 500 ------- 0 1.0 3.0 22 34
+ 0.624 2 3 cbr 500 ------- 0 1.0 3.0 22 34
- 0.624 2 3 cbr 500 ------- 0 1.0 3.0 22 34
+ 0.625 1 2 cbr 500 ------- 0 1.0 3.0 25 37
- 0.625 1 2 cbr 500 ------- 0 1.0 3.0 25 37
r 0.628 2 3 cbr 500 ------- 0 1.0 3.0 20 32
r 0.629 1 2 cbr 500 ------- 0 1.0 3.0 23 35
+ 0.629 2 3 cbr 500 ------- 0 1.0 3.0 23 35
- 0.629 2 3 cbr 500 ------- 0 1.0 3.0 23 35
+ 0.63 1 2 cbr 500 ------- 0 1.0 3.0 26 38
- 0.63 1 2 cbr 500 ------- 0 1.0 3.0 26 38
r 0.633 2 3 cbr 500 ------- 0 1.0 3.0 21 33
r 0.634 1 2 cbr 500 ------- 0 1.0 3.0 24 36
+ 0.634 2 3 cbr 500 ------- 0 1.0 3.0 24 36
- 0.634 2 3 cbr 500 ------- 0 1.0 3.0 24 36
+ 0.635 1 2 cbr 500 ------- 0 1.0 3.0 27 39
- 0.635 1 2 cbr 500 ------- 0 1.0 3.0 27 39
r 0.638 2 3 cbr 500 ------- 0 1.0 3.0 22 34
r 0.639 1 2 cbr 500 ------- 0 1.0 3.0 25 37
+ 0.639 2 3 cbr 500 ------- 0 1.0 3.0 25 37
- 0.639 2 3 cbr 500 ------- 0 1.0 3.0 25 37
+ 0.64 1 2 cbr 500 ------- 0 1.0 3.0 28 40
- 0.64 1 2 cbr 500 ------- 0 1.0 3.0 28 40
r 0.643 2 3 cbr 500 ------- 0 1.0 3.0 23 35
r 0.644 1 2 cbr 500 ------- 0 1.0 3.0 26 38
+ 0.644 2 3 cbr 500 ------- 0 1.0 3.0 26 38
- 0.644 2 3 cbr 500 ------- 0 1.0 3.0 26 38
+ 0.645 1 2 cbr 500 ------- 0 1.0 3.0 29 41
- 0.645 1 2 cbr 500 ------- 0 1.0 3.0 29 41
r 0.648 2 3 cbr 500 ------- 0 1.0 3.0 24 36
r 0.649 1 2 cbr 500 ------- 0 1.0 3.0 27 39
+ 0.649 2 3 cbr 500 ------- 0 1.0 3.0 27 39
- 0.649 2 3 cbr 500 ------- 0 1.0 3.0 27 39
+ 0.65 1 2 cbr 500 ------- 0 1.0 3.0 30 42
- 0.65 1 2 cbr 500 ------- 0 1.0 3.0 30 42
r 0.653 2 3 cbr 500 ------- 0 1.0 3.0 25 37
r 0.654 1 2 cbr 500 ------- 0 1.0 3.0 28 40
+ 0.654 2 3 cbr 500 ------- 0 1.0 3.0 28 40
- 0.654 2 3 cbr 500 ------- 0 1.0 3.0 28 40
+ 0.655 1 2 cbr 500 ------- 0 1.0 3.0 31 43
- 0.655 1 2 cbr 500 ------- 0 1.0 3.0 31 43
r 0.658 2 3 cbr 500 ------- 0 1.0 3.0 26 38
r 0.659 1 2 cbr 500 ------- 0 1.0 3.0 29 41
+ 0.659 2 3 cbr 500 ------- 0 1.0 3.0 29 41
- 0.659 2 3 cbr 500 ------- 0 1.0 3.0 29 41
+ 0.66 1 2 cbr 500 ------- 0 1.0 3.0 32 44
- 0.66 1 2 cbr 500 ------- 0 1.0 3.0 32 44
r 0.663 2 3 cbr 500 ------- 0 1.0 3.0 27 39
r 0.664 1 2 cbr 500 ------- 0 1.0 3.0 30 42
+ 0.664 2 3 cbr 500 ------- 0 1.0 3.0 30 42
- 0.664 2 3 cbr 500 ------- 0 1.0 3.0 30 42
+ 0.665 1 2 cbr 500 ------- 0 1.0 3.0 33 45
- 0.665 1 2 cbr 500 ------- 0 1.0 3.0 33 45
r 0.668 2 3 cbr 500 ------- 0 1.0 3.0 28 40
r 0.669 1 2 cbr 500 ------- 0 1.0 3.0 31 43
+ 0.669 2 3 cbr 500 ------- 0 1.0 3.0 31 43
- 0.669 2 3 cbr 500 ------- 0 1.0 3.0 31 43
+ 0.67 1 2 cbr 500 ------- 0 1.0 3.0 34 46
- 0.67 1 2 cbr 500 ------- 0 1.0 3.0 34 46
r 0.673 2 3 cbr 500 ------- 0 1.0 3.0 29 41
r 0.674 1 2 cbr 500 ------- 0 1.0 3.0 32 44
+ 0.674 2 3 cbr 500 ------- 0 1.0 3.0 32 44
- 0.674 2 3 cbr 500 ------- 0 1.0 3.0 32 44
+ 0.675 1 2 cbr 500 ------- 0 1.0 3.0 35 47
- 0.675 1 2 cbr 500 ------- 0 1.0 3.0 35 47
r 0.678 2 3 cbr 500 ------- 0 1.0 3.0 30 42
r 0.679 1 2 cbr 500 ------- 0 1.0 3.0 33 45
+ 0.679 2 3 cbr 500 ------- 0 1.0 3.0 33 45
- 0.679 2 3 cbr 500 ------- 0 1.0 3.0 33 45
+ 0.68 1 2 cbr 500 ------- 0 1.0 3.0 36 48
- 0.68 1 2 cbr 500 ------- 0 1.0 3.0 36 48
r 0.683 2 3 cbr 500 ------- 0 1.0 3.0 31 43
r 0.684 1 2 cbr 500 ------- 0 1.0 3.0 34 46
+ 0.684 2 3 cbr 500 ------- 0 1.0 3.0 34 46
- 0.684 2 3 cbr 500 ------- 0 1.0 3.0 34 46
+ 0.685 1 2 cbr 500 ------- 0 1.0 3.0 37 49
- 0.685 1 2 cbr 500 ------- 0 1.0 3.0 37 49
r 0.688 2 3 cbr 500 ------- 0 1.0 3.0 32 44
r 0.689 1 2 cbr 500 ------- 0 1.0 3.0 35 47
+ 0.689 2 3 cbr 500 ------- 0 1.0 3.0 35 47
- 0.689 2 3 cbr 500 ------- 0 1.0 3.0 35 47
+ 0.69 1 2 cbr 500 ------- 0 1.0 3.0 38 50
- 0.69 1 2 cbr 500 ------- 0 1.0 3.0 38 50
r 0.693 2 3 cbr 500 ------- 0 1.0 3.0 33 45
r 0.694 1 2 cbr 500 ------- 0 1.0 3.0 36 48
+ 0.694 2 3 cbr 500 ------- 0 1.0 3.0 36 48
- 0.694 2 3 cbr 500 ------- 0 1.0 3.0 36 48
+ 0.695 1 2 cbr 500 ------- 0 1.0 3.0 39 51
- 0.695 1 2 cbr 500 ------- 0 1.0 3.0 39 51
r 0.698 2 3 cbr 500 ------- 0 1.0 3.0 34 46
r 0.699 1 2 cbr 500 ------- 0 1.0 3.0 37 49
+ 0.699 2 3 cbr 500 ------- 0 1.0 3.0 37 49
- 0.699 2 3 cbr 500 ------- 0 1.0 3.0 37 49
+ 0.7 1 2 cbr 500 ------- 0 1.0 3.0 40 52
- 0.7 1 2 cbr 500 ------- 0 1.0 3.0 40 52
r 0.703 2 3 cbr 500 ------- 0 1.0 3.0 35 47
r 0.704 1 2 cbr 500 ------- 0 1.0 3.0 38 50
+ 0.704 2 3 cbr 500 ------- 0 1.0 3.0 38 50
- 0.704 2 3 cbr 500 ------- 0 1.0 3.0 38 50
+ 0.705 1 2 cbr 500 ------- 0 1.0 3.0 41 53
- 0.705 1 2 cbr 500 ------- 0 1.0 3.0 41 53
r 0.708 2 3 cbr 500 ------- 0 1.0 3.0 36 48
r 0.709 1 2 cbr 500 ------- 0 1.0 3.0 39 51
+ 0.709 2 3 cbr 500 ------- 0 1.0 3.0 39 51
- 0.709 2 3 cbr 500 ------- 0 1.0 3.0 39 51
+ 0.71 1 2 cbr 500 ------- 0 1.0 3.0 42 54
- 0.71 1 2 cbr 500 ------- 0 1.0 3.0 42 54
r 0.713 2 3 cbr 500 ------- 0 1.0 3.0 37 49
r 0.714 1 2 cbr 500 ------- 0 1.0 3.0 40 52
+ 0.714 2 3 cbr 500 ------- 0 1.0 3.0 40 52
- 0.714 2 3 cbr 500 ------- 0 1.0 3.0 40 52
+ 0.715 1 2 cbr 500 ------- 0 1.0 3.0 43 55
- 0.715 1 2 cbr 500 ------- 0 1.0 3.0 43 55
r 0.718 2 3 cbr 500 ------- 0 1.0 3.0 38 50
r 0.719 1 2 cbr 500 ------- 0 1.0 3.0 41 53
+ 0.719 2 3 cbr 500 ------- 0 1.0 3.0 41 53
- 0.719 2 3 cbr 500 ------- 0 1.0 3.0 41 53
+ 0.72 1 2 cbr 500 ------- 0 1.0 3.0 44 56
- 0.72 1 2 cbr 500 ------- 0 1.0 3.0 44 56
r 0.723 2 3 cbr 500 ------- 0 1.0 3.0 39 51
r 0.724 1 2 cbr 500 ------- 0 1.0 3.0 42 54
+ 0.724 2 3 cbr 500 ------- 0 1.0 3.0 42 54
- 0.724 2 3 cbr 500 ------- 0 1.0 3.0 42 54
+ 0.725 1 2 cbr 500 ------- 0 1.0 3.0 45 57
- 0.725 1 2 cbr 500 ------- 0 1.0 3.0 45 57
r 0.728 2 3 cbr 500 ------- 0 1.0 3.0 40 52
r 0.729 1 2 cbr 500 ------- 0 1.0 3.0 43 55
+ 0.729 2 3 cbr 500 ------- 0 1.0 3.0 43 55
- 0.729 2 3 cbr 500 ------- 0 1.0 3.0 43 55
+ 0.73 1 2 cbr 500 ------- 0 1.0 3.0 46 58
- 0.73 1 2 cbr 500 ------- 0 1.0 3.0 46 58
r 0.733 2 3 cbr 500 ------- 0 1.0 3.0 41 53
r 0.734 1 2 cbr 500 ------- 0 1.0 3.0 44 56
+ 0.734 2 3 cbr 500 ------- 0 1.0 3.0 44 56
- 0.734 2 3 cbr 500 ------- 0 1.0 3.0 44 56
+ 0.735 1 2 cbr 500 ------- 0 1.0 3.0 47 59
- 0.735 1 2 cbr 500 ------- 0 1.0 3.0 47 59
r 0.738 2 3 cbr 500 ------- 0 1.0 3.0 42 54
r 0.739 1 2 cbr 500 ------- 0 1.0 3.0 45 57
+ 0.739 2 3 cbr 500 ------- 0 1.0 3.0 45 57
- 0.739 2 3 cbr 500 ------- 0 1.0 3.0 45 57
+ 0.74 1 2 cbr 500 ------- 0 1.0 3.0 48 60
- 0.74 1 2 cbr 500 ------- 0 1.0 3.0 48 60
r 0.743 2 3 cbr 500 ------- 0 1.0 3.0 43 55
r 0.744 1 2 cbr 500 ------- 0 1.0 3.0 46 58
+ 0.744 2 3 cbr 500 ------- 0 1.0 3.0 46 58
- 0.744 2 3 cbr 500 ------- 0 1.0 3.0 46 58
+ 0.745 1 2 cbr 500 ------- 0 1.0 3.0 49 61
- 0.745 1 2 cbr 500 ------- 0 1.0 3.0 49 61
r 0.748 2 3 cbr 500 ------- 0 1.0 3.0 44 56
r 0.749 1 2 cbr 500 ------- 0 1.0 3.0 47 59
+ 0.749 2 3 cbr 500 ------- 0 1.0 3.0 47 59
- 0.749 2 3 cbr 500 ------- 0 1.0 3.0 47 59
+ 0.75 1 2 cbr 500 ------- 0 1.0 3.0 50 62
- 0.75 1 2 cbr 500 ------- 0 1.0 3.0 50 62
r 0.753 2 3 cbr 500 ------- 0 1.0 3.0 45 57
r 0.754 1 2 cbr 500 ------- 0 1.0 3.0 48 60
+ 0.754 2 3 cbr 500 ------- 0 1.0 3.0 48 60
- 0.754 2 3 cbr 500 ------- 0 1.0 3.0 48 60
+ 0.755 1 2 cbr 500 ------- 0 1.0 3.0 51 63
- 0.755 1 2 cbr 500 ------- 0 1.0 3.0 51 63
r 0.758 2 3 cbr 500 ------- 0 1.0 3.0 46 58
r 0.759 1 2 cbr 500 ------- 0 1.0 3.0 49 61
+ 0.759 2 3 cbr 500 ------- 0 1.0 3.0 49 61
- 0.759 2 3 cbr 500 ------- 0 1.0 3.0 49 61
+ 0.76 1 2 cbr 500 ------- 0 1.0 3.0 52 64
- 0.76 1 2 cbr 500 ------- 0 1.0 3.0 52 64
r 0.763 2 3 cbr 500 ------- 0 1.0 3.0 47 59
r 0.764 1 2 cbr 500 ------- 0 1.0 3.0 50 62
+ 0.764 2 3 cbr 500 ------- 0 1.0 3.0 50 62
- 0.764 2 3 cbr 500 ------- 0 1.0 3.0 50 62
+ 0.765 1 2 cbr 500 ------- 0 1.0 3.0 53 65
- 0.765 1 2 cbr 500 ------- 0 1.0 3.0 53 65
r 0.768 2 3 cbr 500 ------- 0 1.0 3.0 48 60
r 0.769 1 2 cbr 500 ------- 0 1.0 3.0 51 63
+ 0.769 2 3 cbr 500 ------- 0 1.0 3.0 51 63
- 0.769 2 3 cbr 500 ------- 0 1.0 3.0 51 63
+ 0.77 1 2 cbr 500 ------- 0 1.0 3.0 54 66
- 0.77 1 2 cbr 500 ------- 0 1.0 3.0 54 66
r 0.773 2 3 cbr 500 ------- 0 1.0 3.0 49 61
r 0.774 1 2 cbr 500 ------- 0 1.0 3.0 52 64
+ 0.774 2 3 cbr 500 ------- 0 1.0 3.0 52 64
- 0.774 2 3 cbr 500 ------- 0 1.0 3.0 52 64
+ 0.775 1 2 cbr 500 ------- 0 1.0 3.0 55 67
- 0.775 1 2 cbr 500 ------- 0 1.0 3.0 55 67
r 0.778 2 3 cbr 500 ------- 0 1.0 3.0 50 62
r 0.779 1 2 cbr 500 ------- 0 1.0 3.0 53 65
+ 0.779 2 3 cbr 500 ------- 0 1.0 3.0 53 65
- 0.779 2 3 cbr 500 ------- 0 1.0 3.0 53 65
+ 0.78 1 2 cbr 500 ------- 0 1.0 3.0 56 68
- 0.78 1 2 cbr 500 ------- 0 1.0 3.0 56 68
r 0.783 2 3 cbr 500 ------- 0 1.0 3.0 51 63
r 0.784 1 2 cbr 500 ------- 0 1.0 3.0 54 66
+ 0.784 2 3 cbr 500 ------- 0 1.0 3.0 54 66
- 0.784 2 3 cbr 500 ------- 0 1.0 3.0 54 66
+ 0.785 1 2 cbr 500 ------- 0 1.0 3.0 57 69
- 0.785 1 2 cbr 500 ------- 0 1.0 3.0 57 69
r 0.788 2 3 cbr 500 ------- 0 1.0 3.0 52 64
r 0.789 1 2 cbr 500 ------- 0 1.0 3.0 55 67
+ 0.789 2 3 cbr 500 ------- 0 1.0 3.0 55 67
- 0.789 2 3 cbr 500 ------- 0 1.0 3.0 55 67
+ 0.79 1 2 cbr 500 ------- 0 1.0 3.0 58 70
- 0.79 1 2 cbr 500 ------- 0 1.0 3.0 58 70
r 0.793 2 3 cbr 500 ------- 0 1.0 3.0 53 65
r 0.794 1 2 cbr 500 ------- 0 1.0 3.0 56 68
+ 0.794 2 3 cbr 500 ------- 0 1.0 3.0 56 68
- 0.794 2 3 cbr 500 ------- 0 1.0 3.0 56 68
+ 0.795 1 2 cbr 500 ------- 0 1.0 3.0 59 71
- 0.795 1 2 cbr 500 ------- 0 1.0 3.0 59 71
r 0.798 2 3 cbr 500 ------- 0 1.0 3.0 54 66
r 0.799 1 2 cbr 500 ------- 0 1.0 3.0 57 69
+ 0.799 2 3 cbr 500 ------- 0 1.0 3.0 57 69
- 0.799 2 3 cbr 500 ------- 0 1.0 3.0 57 69
+ 0.8 1 2 cbr 500 ------- 0 1.0 3.0 60 72
- 0.8 1 2 cbr 500 ------- 0 1.0 3.0 60 72
r 0.803 2 3 cbr 500 ------- 0 1.0 3.0 55 67
r 0.804 1 2 cbr 500 ------- 0 1.0 3.0 58 70
+ 0.804 2 3 cbr 500 ------- 0 1.0 3.0 58 70
- 0.804 2 3 cbr 500 ------- 0 1.0 3.0 58 70
+ 0.805 1 2 cbr 500 ------- 0 1.0 3.0 61 73
- 0.805 1 2 cbr 500 ------- 0 1.0 3.0 61 73
r 0.808 2 3 cbr 500 ------- 0 1.0 3.0 56 68
r 0.809 1 2 cbr 500 ------- 0 1.0 3.0 59 71
+ 0.809 2 3 cbr 500 ------- 0 1.0 3.0 59 71
- 0.809 2 3 cbr 500 ------- 0 1.0 3.0 59 71
+ 0.81 1 2 cbr 500 ------- 0 1.0 3.0 62 74
- 0.81 1 2 cbr 500 ------- 0 1.0 3.0 62 74
r 0.813 2 3 cbr 500 ------- 0 1.0 3.0 57 69
r 0.814 1 2 cbr 500 ------- 0 1.0 3.0 60 72
+ 0.814 2 3 cbr 500 ------- 0 1.0 3.0 60 72
- 0.814 2 3 cbr 500 ------- 0 1.0 3.0 60 72
+ 0.815 1 2 cbr 500 ------- 0 1.0 3.0 63 75
- 0.815 1 2 cbr 500 ------- 0 1.0 3.0 63 75
r 0.818 2 3 cbr 500 ------- 0 1.0 3.0 58 70
r 0.819 1 2 cbr 500 ------- 0 1.0 3.0 61 73
+ 0.819 2 3 cbr 500 ------- 0 1.0 3.0 61 73
- 0.819 2 3 cbr 500 ------- 0 1.0 3.0 61 73
+ 0.82 1 2 cbr 500 ------- 0 1.0 3.0 64 76
- 0.82 1 2 cbr 500 ------- 0 1.0 3.0 64 76
r 0.823 2 3 cbr 500 ------- 0 1.0 3.0 59 71
r 0.824 1 2 cbr 500 ------- 0 1.0 3.0 62 74
+ 0.824 2 3 cbr 500 ------- 0 1.0 3.0 62 74
- 0.824 2 3 cbr 500 ------- 0 1.0 3.0 62 74
+ 0.825 1 2 cbr 500 ------- 0 1.0 3.0 65 77
- 0.825 1 2 cbr 500 ------- 0 1.0 3.0 65 77
r 0.828 2 3 cbr 500 ------- 0 1.0 3.0 60 72
r 0.829 1 2 cbr 500 ------- 0 1.0 3.0 63 75
+ 0.829 2 3 cbr 500 ------- 0 1.0 3.0 63 75
- 0.829 2 3 cbr 500 ------- 0 1.0 3.0 63 75
+ 0.83 1 2 cbr 500 ------- 0 1.0 3.0 66 78
- 0.83 1 2 cbr 500 ------- 0 1.0 3.0 66 78
r 0.833 2 3 cbr 500 ------- 0 1.0 3.0 61 73
r 0.834 1 2 cbr 500 ------- 0 1.0 3.0 64 76
+ 0.834 2 3 cbr 500 ------- 0 1.0 3.0 64 76
- 0.834 2 3 cbr 500 ------- 0 1.0 3.0 64 76
+ 0.835 1 2 cbr 500 ------- 0 1.0 3.0 67 79
- 0.835 1 2 cbr 500 ------- 0 1.0 3.0 67 79
r 0.838 2 3 cbr 500 ------- 0 1.0 3.0 62 74
r 0.839 1 2 cbr 500 ------- 0 1.0 3.0 65 77
+ 0.839 2 3 cbr 500 ------- 0 1.0 3.0 65 77
- 0.839 2 3 cbr 500 ------- 0 1.0 3.0 65 77
+ 0.84 1 2 cbr 500 ------- 0 1.0 3.0 68 80
- 0.84 1 2 cbr 500 ------- 0 1.0 3.0 68 80
r 0.843 2 3 cbr 500 ------- 0 1.0 3.0 63 75
r 0.844 1 2 cbr 500 ------- 0 1.0 3.0 66 78
+ 0.844 2 3 cbr 500 ------- 0 1.0 3.0 66 78
- 0.844 2 3 cbr 500 ------- 0 1.0 3.0 66 78
+ 0.845 1 2 cbr 500 ------- 0 1.0 3.0 69 81
- 0.845 1 2 cbr 500 ------- 0 1.0 3.0 69 81
r 0.848 2 3 cbr 500 ------- 0 1.0 3.0 64 76
r 0.849 1 2 cbr 500 ------- 0 1.0 3.0 67 79
+ 0.849 2 3 cbr 500 ------- 0 1.0 3.0 67 79
- 0.849 2 3 cbr 500 ------- 0 1.0 3.0 67 79
+ 0.85 1 2 cbr 500 ------- 0 1.0 3.0 70 82
- 0.85 1 2 cbr 500 ------- 0 1.0 3.0 70 82
r 0.853 2 3 cbr 500 ------- 0 1.0 3.0 65 77
r 0.854 1 2 cbr 500 ------- 0 1.0 3.0 68 80
+ 0.854 2 3 cbr 500 ------- 0 1.0 3.0 68 80
- 0.854 2 3 cbr 500 ------- 0 1.0 3.0 68 80
+ 0.855 1 2 cbr 500 ------- 0 1.0 3.0 71 83
- 0.855 1 2 cbr 500 ------- 0 1.0 3.0 71 83
r 0.858 2 3 cbr 500 ------- 0 1.0 3.0 66 78
r 0.859 1 2 cbr 500 ------- 0 1.0 3.0 69 81
+ 0.859 2 3 cbr 500 ------- 0 1.0 3.0 69 81
- 0.859 2 3 cbr 500 ------- 0 1.0 3.0 69 81
+ 0.86 1 2 cbr 500 ------- 0 1.0 3.0 72 84
- 0.86 1 2 cbr 500 ------- 0 1.0 3.0 72 84
r 0.863 2 3 cbr 500 ------- 0 1.0 3.0 67 79
r 0.864 1 2 cbr 500 ------- 0 1.0 3.0 70 82
+ 0.864 2 3 cbr 500 ------- 0 1.0 3.0 70 82
- 0.864 2 3 cbr 500 ------- 0 1.0 3.0 70 82
+ 0.865 1 2 cbr 500 ------- 0 1.0 3.0 73 85
- 0.865 1 2 cbr 500 ------- 0 1.0 3.0 73 85
r 0.868 2 3 cbr 500 ------- 0 1.0 3.0 68 80
r 0.869 1 2 cbr 500 ------- 0 1.0 3.0 71 83
+ 0.869 2 3 cbr 500 ------- 0 1.0 3.0 71 83
- 0.869 2 3 cbr 500 ------- 0 1.0 3.0 71 83
+ 0.87 1 2 cbr 500 ------- 0 1.0 3.0 74 86
- 0.87 1 2 cbr 500 ------- 0 1.0 3.0 74 86
r 0.873 2 3 cbr 500 ------- 0 1.0 3.0 69 81
r 0.874 1 2 cbr 500 ------- 0 1.0 3.0 72 84
+ 0.874 2 3 cbr 500 ------- 0 1.0 3.0 72 84
- 0.874 2 3 cbr 500 ------- 0 1.0 3.0 72 84
+ 0.875 1 2 cbr 500 ------- 0 1.0 3.0 75 87
- 0.875 1 2 cbr 500 ------- 0 1.0 3.0 75 87
r 0.878 2 3 cbr 500 ------- 0 1.0 3.0 70 82
r 0.879 1 2 cbr 500 ------- 0 1.0 3.0 73 85
+ 0.879 2 3 cbr 500 ------- 0 1.0 3.0 73 85
- 0.879 2 3 cbr 500 ------- 0 1.0 3.0 73 85
+ 0.88 1 2 cbr 500 ------- 0 1.0 3.0 76 88
- 0.88 1 2 cbr 500 ------- 0 1.0 3.0 76 88
r 0.883 2 3 cbr 500 ------- 0 1.0 3.0 71 83
r 0.884 1 2 cbr 500 ------- 0 1.0 3.0 74 86
+ 0.884 2 3 cbr 500 ------- 0 1.0 3.0 74 86
- 0.884 2 3 cbr 500 ------- 0 1.0 3.0 74 86
+ 0.885 1 2 cbr 500 ------- 0 1.0 3.0 77 89
- 0.885 1 2 cbr 500 ------- 0 1.0 3.0 77 89
r 0.888 2 3 cbr 500 ------- 0 1.0 3.0 72 84
r 0.889 1 2 cbr 500 ------- 0 1.0 3.0 75 87
+ 0.889 2 3 cbr 500 ------- 0 1.0 3.0 75 87
- 0.889 2 3 cbr 500 ------- 0 1.0 3.0 75 87
+ 0.89 1 2 cbr 500 ------- 0 1.0 3.0 78 90
- 0.89 1 2 cbr 500 ------- 0 1.0 3.0 78 90
r 0.893 2 3 cbr 500 ------- 0 1.0 3.0 73 85
r 0.894 1 2 cbr 500 ------- 0 1.0 3.0 76 88
+ 0.894 2 3 cbr 500 ------- 0 1.0 3.0 76 88
- 0.894 2 3 cbr 500 ------- 0 1.0 3.0 76 88
+ 0.895 1 2 cbr 500 ------- 0 1.0 3.0 79 91
- 0.895 1 2 cbr 500 ------- 0 1.0 3.0 79 91
r 0.898 2 3 cbr 500 ------- 0 1.0 3.0 74 86
r 0.899 1 2 cbr 500 ------- 0 1.0 3.0 77 89
+ 0.899 2 3 cbr 500 ------- 0 1.0 3.0 77 89
- 0.899 2 3 cbr 500 ------- 0 1.0 3.0 77 89
+ 0.9 1 2 cbr 500 ------- 0 1.0 3.0 80 92
- 0.9 1 2 cbr 500 ------- 0 1.0 3.0 80 92
r 0.903 2 3 cbr 500 ------- 0 1.0 3.0 75 87
r 0.904 1 2 cbr 500 ------- 0 1.0 3.0 78 90
+ 0.904 2 3 cbr 500 ------- 0 1.0 3.0 78 90
- 0.904 2 3 cbr 500 ------- 0 1.0 3.0 78 90
+ 0.905 1 2 cbr 500 ------- 0 1.0 3.0 81 93
- 0.905 1 2 cbr 500 ------- 0 1.0 3.0 81 93
r 0.908 2 3 cbr 500 ------- 0 1.0 3.0 76 88
r 0.909 1 2 cbr 500 ------- 0 1.0 3.0 79 91
+ 0.909 2 3 cbr 500 ------- 0 1.0 3.0 79 91
- 0.909 2 3 cbr 500 ------- 0 1.0 3.0 79 91
+ 0.91 1 2 cbr 500 ------- 0 1.0 3.0 82 94
- 0.91 1 2 cbr 500 ------- 0 1.0 3.0 82 94
r 0.913 2 3 cbr 500 ------- 0 1.0 3.0 77 89
r 0.914 1 2 cbr 500 ------- 0 1.0 3.0 80 92
+ 0.914 2 3 cbr 500 ------- 0 1.0 3.0 80 92
- 0.914 2 3 cbr 500 ------- 0 1.0 3.0 80 92
+ 0.915 1 2 cbr 500 ------- 0 1.0 3.0 83 95
- 0.915 1 2 cbr 500 ------- 0 1.0 3.0 83 95
r 0.918 2 3 cbr 500 ------- 0 1.0 3.0 78 90
r 0.919 1 2 cbr 500 ------- 0 1.0 3.0 81 93
+ 0.919 2 3 cbr 500 ------- 0 1.0 3.0 81 93
- 0.919 2 3 cbr 500 ------- 0 1.0 3.0 81 93
+ 0.92 1 2 cbr 500 ------- 0 1.0 3.0 84 96
- 0.92 1 2 cbr 500 ------- 0 1.0 3.0 84 96
r 0.923 2 3 cbr 500 ------- 0 1.0 3.0 79 91
r 0.924 1 2 cbr 500 ------- 0 1.0 3.0 82 94
+ 0.924 2 3 cbr 500 ------- 0 1.0 3.0 82 94
- 0.924 2 3 cbr 500 ------- 0 1.0 3.0 82 94
+ 0.925 1 2 cbr 500 ------- 0 1.0 3.0 85 97
- 0.925 1 2 cbr 500 ------- 0 1.0 3.0 85 97
r 0.928 2 3 cbr 500 ------- 0 1.0 3.0 80 92
r 0.929 1 2 cbr 500 ------- 0 1.0 3.0 83 95
+ 0.929 2 3 cbr 500 ------- 0 1.0 3.0 83 95
- 0.929 2 3 cbr 500 ------- 0 1.0 3.0 83 95
+ 0.93 1 2 cbr 500 ------- 0 1.0 3.0 86 98
- 0.93 1 2 cbr 500 ------- 0 1.0 3.0 86 98
r 0.933 2 3 cbr 500 ------- 0 1.0 3.0 81 93
r 0.934 1 2 cbr 500 ------- 0 1.0 3.0 84 96
+ 0.934 2 3 cbr 500 ------- 0 1.0 3.0 84 96
- 0.934 2 3 cbr 500 ------- 0 1.0 3.0 84 96
+ 0.935 1 2 cbr 500 ------- 0 1.0 3.0 87 99
- 0.935 1 2 cbr 500 ------- 0 1.0 3.0 87 99
r 0.938 2 3 cbr 500 ------- 0 1.0 3.0 82 94
r 0.939 1 2 cbr 500 ------- 0 1.0 3.0 85 97
+ 0.939 2 3 cbr 500 ------- 0 1.0 3.0 85 97
- 0.939 2 3 cbr 500 ------- 0 1.0 3.0 85 97
+ 0.94 1 2 cbr 500 ------- 0 1.0 3.0 88 100
- 0.94 1 2 cbr 500 ------- 0 1.0 3.0 88 100
r 0.943 2 3 cbr 500 ------- 0 1.0 3.0 83 95
r 0.944 1 2 cbr 500 ------- 0 1.0 3.0 86 98
+ 0.944 2 3 cbr 500 ------- 0 1.0 3.0 86 98
- 0.944 2 3 cbr 500 ------- 0 1.0 3.0 86 98
+ 0.945 1 2 cbr 500 ------- 0 1.0 3.0 89 101
- 0.945 1 2 cbr 500 ------- 0 1.0 3.0 89 101
r 0.948 2 3 cbr 500 ------- 0 1.0 3.0 84 96
r 0.949 1 2 cbr 500 ------- 0 1.0 3.0 87 99
+ 0.949 2 3 cbr 500 ------- 0 1.0 3.0 87 99
- 0.949 2 3 cbr 500 ------- 0 1.0 3.0 87 99
+ 0.95 1 2 cbr 500 ------- 0 1.0 3.0 90 102
- 0.95 1 2 cbr 500 ------- 0 1.0 3.0 90 102
r 0.953 2 3 cbr 500 ------- 0 1.0 3.0 85 97
r 0.954 1 2 cbr 500 ------- 0 1.0 3.0 88 100
+ 0.954 2 3 cbr 500 ------- 0 1.0 3.0 88 100
- 0.954 2 3 cbr 500 ------- 0 1.0 3.0 88 100
+ 0.955 1 2 cbr 500 ------- 0 1.0 3.0 91 103
- 0.955 1 2 cbr 500 ------- 0 1.0 3.0 91 103
r 0.958 2 3 cbr 500 ------- 0 1.0 3.0 86 98
r 0.959 1 2 cbr 500 ------- 0 1.0 3.0 89 101
+ 0.959 2 3 cbr 500 ------- 0 1.0 3.0 89 101
- 0.959 2 3 cbr 500 ------- 0 1.0 3.0 89 101
+ 0.96 1 2 cbr 500 ------- 0 1.0 3.0 92 104
- 0.96 1 2 cbr 500 ------- 0 1.0 3.0 92 104
r 0.963 2 3 cbr 500 ------- 0 1.0 3.0 87 99
r 0.964 1 2 cbr 500 ------- 0 1.0 3.0 90 102
+ 0.964 2 3 cbr 500 ------- 0 1.0 3.0 90 102
- 0.964 2 3 cbr 500 ------- 0 1.0 3.0 90 102
+ 0.965 1 2 cbr 500 ------- 0 1.0 3.0 93 105
- 0.965 1 2 cbr 500 ------- 0 1.0 3.0 93 105
r 0.968 2 3 cbr 500 ------- 0 1.0 3.0 88 100
r 0.969 1 2 cbr 500 ------- 0 1.0 3.0 91 103
+ 0.969 2 3 cbr 500 ------- 0 1.0 3.0 91 103
- 0.969 2 3 cbr 500 ------- 0 1.0 3.0 91 103
+ 0.97 1 2 cbr 500 ------- 0 1.0 3.0 94 106
- 0.97 1 2 cbr 500 ------- 0 1.0 3.0 94 106
r 0.973 2 3 cbr 500 ------- 0 1.0 3.0 89 101
r 0.974 1 2 cbr 500 ------- 0 1.0 3.0 92 104
+ 0.974 2 3 cbr 500 ------- 0 1.0 3.0 92 104
- 0.974 2 3 cbr 500 ------- 0 1.0 3.0 92 104
+ 0.975 1 2 cbr 500 ------- 0 1.0 3.0 95 107
- 0.975 1 2 cbr 500 ------- 0 1.0 3.0 95 107
r 0.978 2 3 cbr 500 ------- 0 1.0 3.0 90 102
r 0.979 1 2 cbr 500 ------- 0 1.0 3.0 93 105
+ 0.979 2 3 cbr 500 ------- 0 1.0 3.0 93 105
- 0.979 2 3 cbr 500 ------- 0 1.0 3.0 93 105
+ 0.98 1 2 cbr 500 ------- 0 1.0 3.0 96 108
- 0.98 1 2 cbr 500 ------- 0 1.0 3.0 96 108
r 0.983 2 3 cbr 500 ------- 0 1.0 3.0 91 103
r 0.984 1 2 cbr 500 ------- 0 1.0 3.0 94 106
+ 0.984 2 3 cbr 500 ------- 0 1.0 3.0 94 106
- 0.984 2 3 cbr 500 ------- 0 1.0 3.0 94 106
+ 0.985 1 2 cbr 500 ------- 0 1.0 3.0 97 109
- 0.985 1 2 cbr 500 ------- 0 1.0 3.0 97 109
r 0.988 2 3 cbr 500 ------- 0 1.0 3.0 92 104
r 0.989 1 2 cbr 500 ------- 0 1.0 3.0 95 107
+ 0.989 2 3 cbr 500 ------- 0 1.0 3.0 95 107
- 0.989 2 3 cbr 500 ------- 0 1.0 3.0 95 107
+ 0.99 1 2 cbr 500 ------- 0 1.0 3.0 98 110
- 0.99 1 2 cbr 500 ------- 0 1.0 3.0 98 110
r 0.993 2 3 cbr 500 ------- 0 1.0 3.0 93 105
r 0.994 1 2 cbr 500 ------- 0 1.0 3.0 96 108
+ 0.994 2 3 cbr 500 ------- 0 1.0 3.0 96 108
- 0.994 2 3 cbr 500 ------- 0 1.0 3.0 96 108
+ 0.995 1 2 cbr 500 ------- 0 1.0 3.0 99 111
- 0.995 1 2 cbr 500 ------- 0 1.0 3.0 99 111
r 0.998 2 3 cbr 500 ------- 0 1.0 3.0 94 106
r 0.999 1 2 cbr 500 ------- 0 1.0 3.0 97 109
+ 0.999 2 3 cbr 500 ------- 0 1.0 3.0 97 109
- 0.999 2 3 cbr 500 ------- 0 1.0 3.0 97 109
+ 1 1 2 cbr 500 ------- 0 1.0 3.0 100 112
- 1 1 2 cbr 500 ------- 0 1.0 3.0 100 112
r 1.003 2 3 cbr 500 ------- 0 1.0 3.0 95 107
r 1.004 1 2 cbr 500 ------- 0 1.0 3.0 98 110
+ 1.004 2 3 cbr 500 ------- 0 1.0 3.0 98 110
- 1.004 2 3 cbr 500 ------- 0 1.0 3.0 98 110
+ 1.005 1 2 cbr 500 ------- 0 1.0 3.0 101 113
- 1.005 1 2 cbr 500 ------- 0 1.0 3.0 101 113
r 1.008 2 3 cbr 500 ------- 0 1.0 3.0 96 108
r 1.009 1 2 cbr 500 ------- 0 1.0 3.0 99 111
+ 1.009 2 3 cbr 500 ------- 0 1.0 3.0 99 111
- 1.009 2 3 cbr 500 ------- 0 1.0 3.0 99 111
+ 1.01 1 2 cbr 500 ------- 0 1.0 3.0 102 114
- 1.01 1 2 cbr 500 ------- 0 1.0 3.0 102 114
r 1.013 2 3 cbr 500 ------- 0 1.0 3.0 97 109
r 1.014 1 2 cbr 500 ------- 0 1.0 3.0 100 112
+ 1.014 2 3 cbr 500 ------- 0 1.0 3.0 100 112
- 1.014 2 3 cbr 500 ------- 0 1.0 3.0 100 112
+ 1.015 1 2 cbr 500 ------- 0 1.0 3.0 103 115
- 1.015 1 2 cbr 500 ------- 0 1.0 3.0 103 115
r 1.018 2 3 cbr 500 ------- 0 1.0 3.0 98 110
r 1.019 1 2 cbr 500 ------- 0 1.0 3.0 101 113
+ 1.019 2 3 cbr 500 ------- 0 1.0 3.0 101 113
- 1.019 2 3 cbr 500 ------- 0 1.0 3.0 101 113
+ 1.02 1 2 cbr 500 ------- 0 1.0 3.0 104 116
- 1.02 1 2 cbr 500 ------- 0 1.0 3.0 104 116
r 1.023 2 3 cbr 500 ------- 0 1.0 3.0 99 111
r 1.024 1 2 cbr 500 ------- 0 1.0 3.0 102 114
+ 1.024 2 3 cbr 500 ------- 0 1.0 3.0 102 114
- 1.024 2 3 cbr 500 ------- 0 1.0 3.0 102 114
+ 1.025 1 2 cbr 500 ------- 0 1.0 3.0 105 117
- 1.025 1 2 cbr 500 ------- 0 1.0 3.0 105 117
r 1.028 2 3 cbr 500 ------- 0 1.0 3.0 100 112
r 1.029 1 2 cbr 500 ------- 0 1.0 3.0 103 115
+ 1.029 2 3 cbr 500 ------- 0 1.0 3.0 103 115
- 1.029 2 3 cbr 500 ------- 0 1.0 3.0 103 115
+ 1.03 1 2 cbr 500 ------- 0 1.0 3.0 106 118
- 1.03 1 2 cbr 500 ------- 0 1.0 3.0 106 118
r 1.033 2 3 cbr 500 ------- 0 1.0 3.0 101 113
r 1.034 1 2 cbr 500 ------- 0 1.0 3.0 104 116
+ 1.034 2 3 cbr 500 ------- 0 1.0 3.0 104 116
- 1.034 2 3 cbr 500 ------- 0 1.0 3.0 104 116
+ 1.035 1 2 cbr 500 ------- 0 1.0 3.0 107 119
- 1.035 1 2 cbr 500 ------- 0 1.0 3.0 107 119
r 1.038 2 3 cbr 500 ------- 0 1.0 3.0 102 114
r 1.039 1 2 cbr 500 ------- 0 1.0 3.0 105 117
+ 1.039 2 3 cbr 500 ------- 0 1.0 3.0 105 117
- 1.039 2 3 cbr 500 ------- 0 1.0 3.0 105 117
+ 1.04 1 2 cbr 500 ------- 0 1.0 3.0 108 120
- 1.04 1 2 cbr 500 ------- 0 1.0 3.0 108 120
r 1.043 2 3 cbr 500 ------- 0 1.0 3.0 103 115
r 1.044 1 2 cbr 500 ------- 0 1.0 3.0 106 118